<?xml version="1.0" encoding="UTF-8"?>

<!-- generated on 2025-01-28 12:50:15 by Eclipse SUMO sumo Version 1.21.0
<sumoConfiguration xmlns:xsi="http://www.w3.org/2001/XMLSchema-instance" xsi:noNamespaceSchemaLocation="http://sumo.dlr.de/xsd/sumoConfiguration.xsd">

    <input>
        <net-file value="./maps/city1.net.xml"/>
        <route-files value="./maps/city1.rou.xml"/>
    </input>

    <output>
        <tripinfo-output value="./tripinfo.xml"/>
    </output>

    <time>
        <begin value="0"/>
        <end value="200"/>
    </time>

    <report>
        <verbose value="true"/>
        <no-step-log value="true"/>
    </report>

    <traci_server>
        <remote-port value="51163"/>
    </traci_server>

</sumoConfiguration>
-->

<tripinfos xmlns:xsi="http://www.w3.org/2001/XMLSchema-instance" xsi:noNamespaceSchemaLocation="http://sumo.dlr.de/xsd/tripinfo_file.xsd">
    <tripinfo id="13" depart="13.00" departLane="-gneE14_0" departPos="5.10" departSpeed="0.00" departDelay="0.00" arrival="23.00" arrivalLane="-gneE14_0" arrivalPos="89.60" arrivalSpeed="14.27" duration="10.00" routeLength="84.50" waitingTime="0.00" waitingCount="0" stopTime="0.00" timeLoss="3.61" rerouteNo="0" devices="tripinfo_13" vType="DEFAULT_VEHTYPE" speedFactor="1.09" vaporized=""/>
    <tripinfo id="27" depart="27.00" departLane="gneE19_0" departPos="5.10" departSpeed="0.00" departDelay="0.00" arrival="80.00" arrivalLane="gneE17_0" arrivalPos="92.80" arrivalSpeed="14.84" duration="53.00" routeLength="585.39" waitingTime="0.00" waitingCount="0" stopTime="0.00" timeLoss="13.86" rerouteNo="0" devices="tripinfo_27" vType="DEFAULT_VEHTYPE" speedFactor="1.16" vaporized=""/>
    <tripinfo id="90" depart="90.00" departLane="gneE23_0" departPos="5.10" departSpeed="0.00" departDelay="0.00" arrival="100.00" arrivalLane="gneE23_0" arrivalPos="89.60" arrivalSpeed="13.27" duration="10.00" routeLength="84.50" waitingTime="0.00" waitingCount="0" stopTime="0.00" timeLoss="3.50" rerouteNo="0" devices="tripinfo_90" vType="DEFAULT_VEHTYPE" speedFactor="1.02" vaporized=""/>
    <tripinfo id="73" depart="73.00" departLane="gneE10_0" departPos="5.10" departSpeed="0.00" departDelay="0.00" arrival="114.00" arrivalLane="gneE26_0" arrivalPos="92.80" arrivalSpeed="13.32" duration="41.00" routeLength="491.90" waitingTime="0.00" waitingCount="0" stopTime="0.00" timeLoss="4.56" rerouteNo="0" devices="tripinfo_73" vType="DEFAULT_VEHTYPE" speedFactor="1.00" vaporized=""/>
    <tripinfo id="52" depart="52.00" departLane="-gneE29_0" departPos="5.10" departSpeed="0.00" departDelay="0.00" arrival="119.00" arrivalLane="gneE21_0" arrivalPos="87.62" arrivalSpeed="7.44" duration="67.00" routeLength="413.15" waitingTime="24.00" waitingCount="1" stopTime="0.00" timeLoss="38.69" rerouteNo="0" devices="tripinfo_52" vType="DEFAULT_VEHTYPE" speedFactor="1.10" vaporized=""/>
    <tripinfo id="56" depart="56.00" departLane="gneE0_0" departPos="5.10" departSpeed="0.00" departDelay="0.00" arrival="140.00" arrivalLane="-gneE20_0" arrivalPos="92.80" arrivalSpeed="14.37" duration="84.00" routeLength="284.16" waitingTime="52.00" waitingCount="1" stopTime="0.00" timeLoss="63.29" rerouteNo="0" devices="tripinfo_56" vType="DEFAULT_VEHTYPE" speedFactor="1.09" vaporized=""/>
    <tripinfo id="51" depart="51.00" departLane="gneE20_0" departPos="5.10" departSpeed="0.00" departDelay="0.00" arrival="141.00" arrivalLane="gneE11_0" arrivalPos="92.80" arrivalSpeed="15.50" duration="90.00" routeLength="584.16" waitingTime="39.00" waitingCount="1" stopTime="0.00" timeLoss="52.68" rerouteNo="0" devices="tripinfo_51" vType="DEFAULT_VEHTYPE" speedFactor="1.18" vaporized=""/>
    <tripinfo id="85" depart="85.00" departLane="gneE5_0" departPos="5.10" departSpeed="0.00" departDelay="0.00" arrival="144.00" arrivalLane="gneE13_0" arrivalPos="92.80" arrivalSpeed="11.80" duration="59.00" routeLength="287.49" waitingTime="27.00" waitingCount="1" stopTime="0.00" timeLoss="36.13" rerouteNo="0" devices="tripinfo_85" vType="DEFAULT_VEHTYPE" speedFactor="0.94" vaporized=""/>
    <tripinfo id="60" depart="60.00" departLane="gneE25_0" departPos="5.10" departSpeed="0.00" departDelay="0.00" arrival="146.00" arrivalLane="gneE11_0" arrivalPos="92.80" arrivalSpeed="13.94" duration="86.00" routeLength="589.00" waitingTime="25.00" waitingCount="1" stopTime="0.00" timeLoss="43.91" rerouteNo="0" devices="tripinfo_60" vType="DEFAULT_VEHTYPE" speedFactor="1.09" vaporized=""/>
    <tripinfo id="17" depart="17.00" departLane="-gneE36_0" departPos="5.10" departSpeed="0.00" departDelay="0.00" arrival="148.00" arrivalLane="gneE12_0" arrivalPos="85.60" arrivalSpeed="11.98" duration="131.00" routeLength="687.49" waitingTime="67.00" waitingCount="2" stopTime="0.00" timeLoss="86.26" rerouteNo="0" devices="tripinfo_17" vType="DEFAULT_VEHTYPE" speedFactor="1.12" vaporized=""/>
    <tripinfo id="19" depart="19.00" departLane="gneE35_0" departPos="5.10" departSpeed="0.00" departDelay="0.00" arrival="157.00" arrivalLane="gneE13_0" arrivalPos="92.80" arrivalSpeed="12.77" duration="138.00" routeLength="789.32" waitingTime="64.00" waitingCount="1" stopTime="0.00" timeLoss="78.80" rerouteNo="0" devices="tripinfo_19" vType="DEFAULT_VEHTYPE" speedFactor="0.99" vaporized=""/>
    <tripinfo id="138" depart="138.00" departLane="-gneE17_0" departPos="5.10" departSpeed="0.00" departDelay="0.00" arrival="162.00" arrivalLane="gneE12_0" arrivalPos="85.60" arrivalSpeed="13.99" duration="24.00" routeLength="187.49" waitingTime="0.00" waitingCount="0" stopTime="0.00" timeLoss="9.57" rerouteNo="0" devices="tripinfo_138" vType="DEFAULT_VEHTYPE" speedFactor="1.01" vaporized=""/>
    <tripinfo id="164" depart="164.00" departLane="gneE3_0" departPos="5.10" departSpeed="0.00" departDelay="0.00" arrival="192.00" arrivalLane="gneE34_0" arrivalPos="85.60" arrivalSpeed="9.27" duration="28.00" routeLength="280.29" waitingTime="0.00" waitingCount="0" stopTime="0.00" timeLoss="8.74" rerouteNo="0" devices="tripinfo_164" vType="DEFAULT_VEHTYPE" speedFactor="1.10" vaporized=""/>
    <tripinfo id="161" depart="161.00" departLane="gneE3_0" departPos="5.10" departSpeed="0.00" departDelay="0.00" arrival="214.00" arrivalLane="gneE36_0" arrivalPos="292.80" arrivalSpeed="13.71" duration="53.00" routeLength="582.12" waitingTime="0.00" waitingCount="0" stopTime="0.00" timeLoss="9.21" rerouteNo="0" devices="tripinfo_161" vType="DEFAULT_VEHTYPE" speedFactor="0.99" vaporized=""/>
    <tripinfo id="131" depart="132.00" departLane="-gneE34_0" departPos="5.10" departSpeed="0.00" departDelay="1.00" arrival="217.00" arrivalLane="-gneE2_0" arrivalPos="185.60" arrivalSpeed="7.64" duration="85.00" routeLength="375.13" waitingTime="40.00" waitingCount="1" stopTime="0.00" timeLoss="56.22" rerouteNo="0" devices="tripinfo_131" vType="DEFAULT_VEHTYPE" speedFactor="0.96" vaporized=""/>
    <tripinfo id="184" depart="184.00" departLane="-gneE1_0" departPos="5.10" departSpeed="0.00" departDelay="0.00" arrival="224.00" arrivalLane="gneE5_0" arrivalPos="85.60" arrivalSpeed="16.21" duration="40.00" routeLength="469.76" waitingTime="0.00" waitingCount="0" stopTime="0.00" timeLoss="10.63" rerouteNo="0" devices="tripinfo_184" vType="DEFAULT_VEHTYPE" speedFactor="1.23" vaporized=""/>
    <tripinfo id="9" depart="9.00" departLane="gneE3_0" departPos="5.10" departSpeed="0.00" departDelay="0.00" arrival="231.00" arrivalLane="-gneE0_0" arrivalPos="92.80" arrivalSpeed="11.34" duration="222.00" routeLength="671.38" waitingTime="150.00" waitingCount="1" stopTime="0.00" timeLoss="164.88" rerouteNo="0" devices="tripinfo_9" vType="DEFAULT_VEHTYPE" speedFactor="0.89" vaporized=""/>
    <tripinfo id="160" depart="160.00" departLane="gneE35_0" departPos="5.10" departSpeed="0.00" departDelay="0.00" arrival="231.00" arrivalLane="gneE8_0" arrivalPos="85.60" arrivalSpeed="13.28" duration="71.00" routeLength="776.75" waitingTime="0.00" waitingCount="0" stopTime="0.00" timeLoss="13.04" rerouteNo="0" devices="tripinfo_160" vType="DEFAULT_VEHTYPE" speedFactor="1.00" vaporized=""/>
    <tripinfo id="57" depart="58.00" departLane="gneE4_0" departPos="5.10" departSpeed="0.00" departDelay="1.00" arrival="250.00" arrivalLane="gneE34_0" arrivalPos="85.60" arrivalSpeed="13.51" duration="192.00" routeLength="664.18" waitingTime="119.00" waitingCount="2" stopTime="0.00" timeLoss="142.08" rerouteNo="0" devices="tripinfo_57" vType="DEFAULT_VEHTYPE" speedFactor="1.04" vaporized=""/>
    <tripinfo id="182" depart="182.00" departLane="-gneE36_0" departPos="5.10" departSpeed="0.00" departDelay="0.00" arrival="253.00" arrivalLane="gneE13_0" arrivalPos="92.80" arrivalSpeed="13.06" duration="71.00" routeLength="794.48" waitingTime="0.00" waitingCount="0" stopTime="0.00" timeLoss="8.65" rerouteNo="0" devices="tripinfo_182" vType="DEFAULT_VEHTYPE" speedFactor="0.96" vaporized=""/>
    <tripinfo id="127" depart="130.00" departLane="gneE9_0" departPos="5.10" departSpeed="0.00" departDelay="3.00" arrival="273.00" arrivalLane="gneE9_0" arrivalPos="89.60" arrivalSpeed="7.74" duration="143.00" routeLength="84.50" waitingTime="128.00" waitingCount="1" stopTime="0.00" timeLoss="136.20" rerouteNo="0" devices="tripinfo_127" vType="DEFAULT_VEHTYPE" speedFactor="0.91" vaporized=""/>
    <tripinfo id="104" depart="104.00" departLane="-gneE36_0" departPos="5.10" departSpeed="0.00" departDelay="0.00" arrival="284.00" arrivalLane="gneE9_0" arrivalPos="89.60" arrivalSpeed="7.53" duration="180.00" routeLength="978.40" waitingTime="80.00" waitingCount="1" stopTime="0.00" timeLoss="113.67" rerouteNo="0" devices="tripinfo_104" vType="DEFAULT_VEHTYPE" speedFactor="1.09" vaporized=""/>
    <tripinfo id="240" depart="240.00" departLane="-gneE36_0" departPos="5.10" departSpeed="0.00" departDelay="0.00" arrival="300.00" arrivalLane="-gneE0_0" arrivalPos="92.80" arrivalSpeed="13.54" duration="60.00" routeLength="689.32" waitingTime="0.00" waitingCount="0" stopTime="0.00" timeLoss="9.10" rerouteNo="0" devices="tripinfo_240" vType="DEFAULT_VEHTYPE" speedFactor="1.00" vaporized=""/>
    <tripinfo id="302" depart="302.00" departLane="gneE21_0" departPos="5.10" departSpeed="0.00" departDelay="0.00" arrival="311.00" arrivalLane="gneE21_0" arrivalPos="87.62" arrivalSpeed="13.72" duration="9.00" routeLength="82.52" waitingTime="0.00" waitingCount="0" stopTime="0.00" timeLoss="2.53" rerouteNo="0" devices="tripinfo_302" vType="DEFAULT_VEHTYPE" speedFactor="1.00" vaporized=""/>
    <tripinfo id="4" depart="4.00" departLane="-gneE5_0" departPos="5.10" departSpeed="0.00" departDelay="0.00" arrival="353.00" arrivalLane="-gneE1_0" arrivalPos="85.60" arrivalSpeed="8.10" duration="349.00" routeLength="360.73" waitingTime="305.00" waitingCount="2" stopTime="0.00" timeLoss="323.11" rerouteNo="0" devices="tripinfo_4" vType="DEFAULT_VEHTYPE" speedFactor="1.01" vaporized=""/>
    <tripinfo id="321" depart="325.00" departLane="gneE21_0" departPos="5.10" departSpeed="0.00" departDelay="4.00" arrival="353.00" arrivalLane="-gneE18_0" arrivalPos="92.80" arrivalSpeed="12.99" duration="28.00" routeLength="284.35" waitingTime="0.00" waitingCount="0" stopTime="0.00" timeLoss="5.80" rerouteNo="0" devices="tripinfo_321" vType="DEFAULT_VEHTYPE" speedFactor="0.97" vaporized=""/>
    <tripinfo id="337" depart="338.00" departLane="gneE17_0" departPos="5.10" departSpeed="0.00" departDelay="1.00" arrival="354.00" arrivalLane="gneE18_0" arrivalPos="92.80" arrivalSpeed="15.06" duration="16.00" routeLength="180.60" waitingTime="0.00" waitingCount="0" stopTime="0.00" timeLoss="4.18" rerouteNo="0" devices="tripinfo_337" vType="DEFAULT_VEHTYPE" speedFactor="1.13" vaporized=""/>
    <tripinfo id="294" depart="294.00" departLane="-gneE36_0" departPos="5.10" departSpeed="0.00" departDelay="0.00" arrival="364.00" arrivalLane="-gneE1_0" arrivalPos="85.60" arrivalSpeed="13.53" duration="70.00" routeLength="776.75" waitingTime="0.00" waitingCount="0" stopTime="0.00" timeLoss="11.30" rerouteNo="0" devices="tripinfo_294" vType="DEFAULT_VEHTYPE" speedFactor="1.00" vaporized=""/>
    <tripinfo id="290" depart="290.00" departLane="-gneE29_0" departPos="5.10" departSpeed="0.00" departDelay="0.00" arrival="378.00" arrivalLane="gneE33_0" arrivalPos="98.02" arrivalSpeed="14.36" duration="88.00" routeLength="939.12" waitingTime="0.00" waitingCount="0" stopTime="0.00" timeLoss="24.40" rerouteNo="0" devices="tripinfo_290" vType="DEFAULT_VEHTYPE" speedFactor="1.11" vaporized=""/>
    <tripinfo id="25" depart="25.00" departLane="-gneE34_0" departPos="5.10" departSpeed="0.00" departDelay="0.00" arrival="383.00" arrivalLane="-gneE22_0" arrivalPos="85.60" arrivalSpeed="5.74" duration="358.00" routeLength="580.18" waitingTime="298.00" waitingCount="1" stopTime="0.00" timeLoss="311.82" rerouteNo="0" devices="tripinfo_25" vType="DEFAULT_VEHTYPE" speedFactor="0.94" vaporized=""/>
    <tripinfo id="323" depart="325.00" departLane="gneE35_0" departPos="5.10" departSpeed="0.00" departDelay="2.00" arrival="385.00" arrivalLane="gneE13_0" arrivalPos="92.80" arrivalSpeed="15.28" duration="60.00" routeLength="789.32" waitingTime="0.00" waitingCount="0" stopTime="0.00" timeLoss="7.56" rerouteNo="0" devices="tripinfo_323" vType="DEFAULT_VEHTYPE" speedFactor="1.11" vaporized=""/>
    <tripinfo id="322" depart="322.00" departLane="gneE35_0" departPos="5.10" departSpeed="0.00" departDelay="0.00" arrival="386.00" arrivalLane="-gneE9_0" arrivalPos="89.60" arrivalSpeed="16.60" duration="64.00" routeLength="880.75" waitingTime="0.00" waitingCount="0" stopTime="0.00" timeLoss="11.41" rerouteNo="0" devices="tripinfo_322" vType="DEFAULT_VEHTYPE" speedFactor="1.24" vaporized=""/>
    <tripinfo id="0" depart="0.00" departLane="gneE18_0" departPos="5.10" departSpeed="0.00" departDelay="0.00" arrival="392.00" arrivalLane="-gneE1_0" arrivalPos="85.60" arrivalSpeed="14.02" duration="392.00" routeLength="667.61" waitingTime="327.00" waitingCount="2" stopTime="0.00" timeLoss="344.99" rerouteNo="0" devices="tripinfo_0" vType="DEFAULT_VEHTYPE" speedFactor="1.06" vaporized=""/>
    <tripinfo id="369" depart="369.00" departLane="-gneE33_0" departPos="5.10" departSpeed="0.00" departDelay="0.00" arrival="396.00" arrivalLane="-gneE32_0" arrivalPos="219.65" arrivalSpeed="15.37" duration="27.00" routeLength="317.90" waitingTime="0.00" waitingCount="0" stopTime="0.00" timeLoss="6.16" rerouteNo="0" devices="tripinfo_369" vType="DEFAULT_VEHTYPE" speedFactor="1.13" vaporized=""/>
    <tripinfo id="366" depart="366.00" departLane="gneE4_0" departPos="5.10" departSpeed="0.00" departDelay="0.00" arrival="398.00" arrivalLane="-gneE20_0" arrivalPos="92.80" arrivalSpeed="15.14" duration="32.00" routeLength="382.33" waitingTime="0.00" waitingCount="0" stopTime="0.00" timeLoss="6.25" rerouteNo="0" devices="tripinfo_366" vType="DEFAULT_VEHTYPE" speedFactor="1.13" vaporized=""/>
    <tripinfo id="404" depart="404.00" departLane="gneE11_0" departPos="5.10" departSpeed="0.00" departDelay="0.00" arrival="414.00" arrivalLane="gneE11_0" arrivalPos="92.80" arrivalSpeed="14.34" duration="10.00" routeLength="87.70" waitingTime="0.00" waitingCount="0" stopTime="0.00" timeLoss="3.59" rerouteNo="0" devices="tripinfo_404" vType="DEFAULT_VEHTYPE" speedFactor="1.09" vaporized=""/>
    <tripinfo id="400" depart="400.00" departLane="-gneE3_0" departPos="5.10" departSpeed="0.00" departDelay="0.00" arrival="415.00" arrivalLane="-gneE3_0" arrivalPos="185.60" arrivalSpeed="16.37" duration="15.00" routeLength="180.50" waitingTime="0.00" waitingCount="0" stopTime="0.00" timeLoss="3.89" rerouteNo="0" devices="tripinfo_400" vType="DEFAULT_VEHTYPE" speedFactor="1.19" vaporized=""/>
    <tripinfo id="26" depart="26.00" departLane="-gneE29_0" departPos="5.10" departSpeed="0.00" departDelay="0.00" arrival="461.00" arrivalLane="gneE5_0" arrivalPos="85.60" arrivalSpeed="12.31" duration="435.00" routeLength="707.67" waitingTime="346.00" waitingCount="3" stopTime="0.00" timeLoss="377.01" rerouteNo="0" devices="tripinfo_26" vType="DEFAULT_VEHTYPE" speedFactor="0.94" vaporized=""/>
    <tripinfo id="97" depart="97.00" departLane="-gneE6_0" departPos="5.10" departSpeed="0.00" departDelay="0.00" arrival="462.00" arrivalLane="gneE34_0" arrivalPos="85.60" arrivalSpeed="14.55" duration="365.00" routeLength="282.33" waitingTime="325.00" waitingCount="2" stopTime="0.00" timeLoss="344.37" rerouteNo="0" devices="tripinfo_97" vType="DEFAULT_VEHTYPE" speedFactor="1.06" vaporized=""/>
    <tripinfo id="124" depart="124.00" departLane="gneE2_0" departPos="5.10" departSpeed="0.00" departDelay="0.00" arrival="467.00" arrivalLane="-gneE3_0" arrivalPos="185.60" arrivalSpeed="14.79" duration="343.00" routeLength="465.89" waitingTime="301.00" waitingCount="1" stopTime="0.00" timeLoss="310.85" rerouteNo="0" devices="tripinfo_124" vType="DEFAULT_VEHTYPE" speedFactor="1.09" vaporized=""/>
    <tripinfo id="129" depart="129.00" departLane="-gneE28_0" departPos="5.10" departSpeed="0.00" departDelay="0.00" arrival="469.00" arrivalLane="gneE5_0" arrivalPos="85.60" arrivalSpeed="14.27" duration="340.00" routeLength="604.32" waitingTime="265.00" waitingCount="2" stopTime="0.00" timeLoss="297.76" rerouteNo="0" devices="tripinfo_129" vType="DEFAULT_VEHTYPE" speedFactor="1.10" vaporized=""/>
    <tripinfo id="345" depart="345.00" departLane="gneE21_0" departPos="5.10" departSpeed="0.00" departDelay="0.00" arrival="469.00" arrivalLane="-gneE7_0" arrivalPos="92.80" arrivalSpeed="7.95" duration="124.00" routeLength="184.35" waitingTime="81.00" waitingCount="2" stopTime="0.00" timeLoss="109.90" rerouteNo="0" devices="tripinfo_345" vType="DEFAULT_VEHTYPE" speedFactor="0.97" vaporized=""/>
    <tripinfo id="71" depart="71.00" departLane="-gneE28_0" departPos="5.10" departSpeed="0.00" departDelay="0.00" arrival="471.00" arrivalLane="gneE34_0" arrivalPos="85.60" arrivalSpeed="14.99" duration="400.00" routeLength="699.16" waitingTime="312.00" waitingCount="3" stopTime="0.00" timeLoss="351.05" rerouteNo="0" devices="tripinfo_71" vType="DEFAULT_VEHTYPE" speedFactor="1.10" vaporized=""/>
    <tripinfo id="55" depart="55.00" departLane="gneE38_0" departPos="5.10" departSpeed="0.00" departDelay="0.00" arrival="472.00" arrivalLane="-gneE25_0" arrivalPos="92.80" arrivalSpeed="6.01" duration="417.00" routeLength="880.23" waitingTime="305.00" waitingCount="4" stopTime="0.00" timeLoss="347.71" rerouteNo="0" devices="tripinfo_55" vType="DEFAULT_VEHTYPE" speedFactor="0.96" vaporized=""/>
    <tripinfo id="8" depart="8.00" departLane="-gneE26_0" departPos="5.10" departSpeed="0.00" departDelay="0.00" arrival="481.00" arrivalLane="gneE14_0" arrivalPos="89.60" arrivalSpeed="14.24" duration="473.00" routeLength="391.59" waitingTime="413.00" waitingCount="3" stopTime="0.00" timeLoss="445.14" rerouteNo="0" devices="tripinfo_8" vType="DEFAULT_VEHTYPE" speedFactor="1.05" vaporized=""/>
    <tripinfo id="15" depart="15.00" departLane="gneE3_0" departPos="5.10" departSpeed="0.00" departDelay="0.00" arrival="482.00" arrivalLane="gneE26_0" arrivalPos="92.80" arrivalSpeed="13.71" duration="467.00" routeLength="767.82" waitingTime="386.00" waitingCount="3" stopTime="0.00" timeLoss="411.80" rerouteNo="0" devices="tripinfo_15" vType="DEFAULT_VEHTYPE" speedFactor="1.03" vaporized=""/>
    <tripinfo id="139" depart="139.00" departLane="-gneE29_0" departPos="5.10" departSpeed="0.00" departDelay="0.00" arrival="483.00" arrivalLane="gneE17_0" arrivalPos="92.80" arrivalSpeed="13.60" duration="344.00" routeLength="814.66" waitingTime="246.00" waitingCount="2" stopTime="0.00" timeLoss="284.36" rerouteNo="0" devices="tripinfo_139" vType="DEFAULT_VEHTYPE" speedFactor="1.03" vaporized=""/>
    <tripinfo id="141" depart="144.00" departLane="gneE18_0" departPos="5.10" departSpeed="0.00" departDelay="3.00" arrival="484.00" arrivalLane="-gneE25_0" arrivalPos="92.80" arrivalSpeed="10.89" duration="340.00" routeLength="284.16" waitingTime="284.00" waitingCount="2" stopTime="0.00" timeLoss="317.13" rerouteNo="0" devices="tripinfo_141" vType="DEFAULT_VEHTYPE" speedFactor="0.96" vaporized=""/>
    <tripinfo id="24" depart="24.00" departLane="gneE18_0" departPos="5.10" departSpeed="0.00" departDelay="0.00" arrival="486.00" arrivalLane="-gneE35_0" arrivalPos="292.80" arrivalSpeed="11.83" duration="462.00" routeLength="889.00" waitingTime="358.00" waitingCount="3" stopTime="0.00" timeLoss="385.68" rerouteNo="0" devices="tripinfo_24" vType="DEFAULT_VEHTYPE" speedFactor="0.88" vaporized=""/>
    <tripinfo id="47" depart="47.00" departLane="-gneE13_0" departPos="5.10" departSpeed="0.00" departDelay="0.00" arrival="486.00" arrivalLane="-gneE38_0" arrivalPos="296.80" arrivalSpeed="15.66" duration="439.00" routeLength="490.87" waitingTime="388.00" waitingCount="2" stopTime="0.00" timeLoss="408.04" rerouteNo="0" devices="tripinfo_47" vType="DEFAULT_VEHTYPE" speedFactor="1.17" vaporized=""/>
    <tripinfo id="146" depart="147.00" departLane="gneE18_0" departPos="5.10" departSpeed="0.00" departDelay="1.00" arrival="486.00" arrivalLane="-gneE25_0" arrivalPos="92.80" arrivalSpeed="11.93" duration="339.00" routeLength="284.16" waitingTime="283.00" waitingCount="2" stopTime="0.00" timeLoss="318.34" rerouteNo="0" devices="tripinfo_146" vType="DEFAULT_VEHTYPE" speedFactor="1.10" vaporized=""/>
    <tripinfo id="169" depart="169.00" departLane="-gneE7_0" departPos="5.10" departSpeed="0.00" departDelay="0.00" arrival="488.00" arrivalLane="-gneE3_0" arrivalPos="185.60" arrivalSpeed="13.68" duration="319.00" routeLength="475.02" waitingTime="252.00" waitingCount="2" stopTime="0.00" timeLoss="284.66" rerouteNo="0" devices="tripinfo_169" vType="DEFAULT_VEHTYPE" speedFactor="1.06" vaporized=""/>
    <tripinfo id="125" depart="125.00" departLane="-gneE31_0" departPos="5.10" departSpeed="0.00" departDelay="0.00" arrival="493.00" arrivalLane="gneE28_0" arrivalPos="216.45" arrivalSpeed="13.71" duration="368.00" routeLength="503.77" waitingTime="309.00" waitingCount="2" stopTime="0.00" timeLoss="331.43" rerouteNo="0" devices="tripinfo_125" vType="DEFAULT_VEHTYPE" speedFactor="1.06" vaporized=""/>
    <tripinfo id="33" depart="33.00" departLane="-gneE26_0" departPos="5.10" departSpeed="0.00" departDelay="0.00" arrival="494.00" arrivalLane="-gneE10_0" arrivalPos="96.80" arrivalSpeed="10.95" duration="461.00" routeLength="491.90" waitingTime="388.00" waitingCount="4" stopTime="0.00" timeLoss="417.68" rerouteNo="0" devices="tripinfo_33" vType="DEFAULT_VEHTYPE" speedFactor="0.83" vaporized=""/>
    <tripinfo id="112" depart="112.00" departLane="-gneE12_0" departPos="5.10" departSpeed="0.00" departDelay="0.00" arrival="498.00" arrivalLane="gneE14_0" arrivalPos="89.60" arrivalSpeed="13.26" duration="386.00" routeLength="668.38" waitingTime="294.00" waitingCount="2" stopTime="0.00" timeLoss="334.57" rerouteNo="0" devices="tripinfo_112" vType="DEFAULT_VEHTYPE" speedFactor="1.00" vaporized=""/>
    <tripinfo id="105" depart="105.00" departLane="-gneE28_0" departPos="5.10" departSpeed="0.00" departDelay="0.00" arrival="499.00" arrivalLane="gneE3_0" arrivalPos="185.60" arrivalSpeed="14.30" duration="394.00" routeLength="993.79" waitingTime="286.00" waitingCount="2" stopTime="0.00" timeLoss="322.23" rerouteNo="0" devices="tripinfo_105" vType="DEFAULT_VEHTYPE" speedFactor="1.03" vaporized=""/>
    <tripinfo id="53" depart="53.00" departLane="-gneE18_0" departPos="5.10" departSpeed="0.00" departDelay="0.00" arrival="500.00" arrivalLane="-gneE5_0" arrivalPos="85.60" arrivalSpeed="5.57" duration="447.00" routeLength="275.23" waitingTime="409.00" waitingCount="2" stopTime="0.00" timeLoss="423.85" rerouteNo="0" devices="tripinfo_53" vType="DEFAULT_VEHTYPE" speedFactor="0.90" vaporized=""/>
</tripinfos>
